TITLE = "Cavity Flow CFD Results"
VARIABLES = "X" "Y" "U" "V" "Umag" "Omega" "Psi"
ZONE T="Flow Field", I=    65, J=    65, F=POINT, STRANDID=1, SOLUTIONTIME=   0.100000000E+01
   0.000000000E+00   0.000000000E+00   0.000000000E+00   0.000000000E+00   0.000000000E+00   0.000000000E+00   0.000000000E+00
   0.156250000E-01   0.000000000E+00   0.000000000E+00   0.000000000E+00   0.000000000E+00   0.000000000E+00   0.000000000E+00
   0.312500000E-01   0.000000000E+00   0.000000000E+00   0.000000000E+00   0.000000000E+00   0.000000000E+00   0.000000000E+00
   0.468750000E-01   0.000000000E+00   0.000000000E+00   0.000000000E+00   0.000000000E+00   0.000000000E+00   0.000000000E+00
   0.625000000E-01   0.000000000E+00   0.000000000E+00   0.000000000E+00   0.000000000E+00   0.000000000E+00   0.000000000E+00
   0.781250000E-01   0.000000000E+00   0.000000000E+00   0.000000000E+00   0.000000000E+00   0.000000000E+00   0.000000000E+00
   0.937500000E-01   0.000000000E+00   0.000000000E+00   0.000000000E+00   0.000000000E+00   0.000000000E+00   0.000000000E+00
   0.109375000E+00   0.000000000E+00   0.000000000E+00   0.000000000E+00   0.000000000E+00   0.000000000E+00   0.000000000E+00
   0.125000000E+00   0.000000000E+00   0.000000000E+00   0.000000000E+00   0.000000000E+00   0.000000000E+00   0.000000000E+00
   0.140625000E+00   0.000000000E+00   0.000000000E+00   0.000000000E+00   0.000000000E+00   0.000000000E+00   0.000000000E+00
   0.156250000E+00   0.000000000E+00   0.000000000E+00   0.000000000E+00   0.000000000E+00   0.000000000E+00   0.000000000E+00
   0.171875000E+00   0.000000000E+00   0.000000000E+00   0.000000000E+00   0.000000000E+00   0.000000000E+00   0.000000000E+00
   0.187500000E+00   0.000000000E+00   0.000000000E+00   0.000000000E+00   0.000000000E+00   0.000000000E+00   0.100000000E+02
   0.203125000E+00   0.000000000E+00   0.000000000E+00   0.000000000E+00   0.000000000E+00               NaN   0.100000000E+02
   0.218750000E+00   0.000000000E+00   0.000000000E+00   0.000000000E+00   0.000000000E+00               NaN   0.100000000E+02
   0.234375000E+00   0.000000000E+00   0.000000000E+00   0.000000000E+00   0.000000000E+00               NaN   0.100000000E+02
   0.250000000E+00   0.000000000E+00   0.000000000E+00   0.000000000E+00   0.000000000E+00               NaN   0.100000000E+02
   0.265625000E+00   0.000000000E+00   0.000000000E+00   0.000000000E+00   0.000000000E+00               NaN   0.100000000E+02
   0.281250000E+00   0.000000000E+00   0.000000000E+00   0.000000000E+00   0.000000000E+00               NaN   0.100000000E+02
   0.296875000E+00   0.000000000E+00   0.000000000E+00   0.000000000E+00   0.000000000E+00               NaN   0.100000000E+02
   0.312500000E+00   0.000000000E+00   0.000000000E+00   0.000000000E+00   0.000000000E+00               NaN   0.100000000E+02
   0.328125000E+00   0.000000000E+00   0.000000000E+00   0.000000000E+00   0.000000000E+00               NaN   0.100000000E+02
   0.343750000E+00   0.000000000E+00   0.000000000E+00   0.000000000E+00   0.000000000E+00               NaN   0.100000000E+02
   0.359375000E+00   0.000000000E+00   0.000000000E+00   0.000000000E+00   0.000000000E+00               NaN   0.100000000E+02
   0.375000000E+00   0.000000000E+00   0.000000000E+00   0.000000000E+00   0.000000000E+00               NaN   0.100000000E+02
   0.390625000E+00   0.000000000E+00   0.000000000E+00   0.000000000E+00   0.000000000E+00               NaN   0.100000000E+02
   0.406250000E+00   0.000000000E+00   0.000000000E+00   0.000000000E+00   0.000000000E+00               NaN   0.100000000E+02
   0.421875000E+00   0.000000000E+00   0.000000000E+00   0.000000000E+00   0.000000000E+00               NaN   0.100000000E+02
   0.437500000E+00   0.000000000E+00   0.000000000E+00   0.000000000E+00   0.000000000E+00               NaN   0.100000000E+02
   0.453125000E+00   0.000000000E+00   0.000000000E+00   0.000000000E+00   0.000000000E+00               NaN   0.100000000E+02
   0.468750000E+00   0.000000000E+00   0.000000000E+00   0.000000000E+00   0.000000000E+00               NaN   0.100000000E+02
   0.484375000E+00   0.000000000E+00   0.000000000E+00   0.000000000E+00   0.000000000E+00               NaN   0.100000000E+02
   0.500000000E+00   0.000000000E+00   0.000000000E+00   0.000000000E+00   0.000000000E+00               NaN   0.100000000E+02
   0.515625000E+00   0.000000000E+00   0.000000000E+00   0.000000000E+00   0.000000000E+00               NaN   0.100000000E+02
   0.531250000E+00   0.000000000E+00   0.000000000E+00   0.000000000E+00   0.000000000E+00               NaN   0.100000000E+02
   0.546875000E+00   0.000000000E+00   0.000000000E+00   0.000000000E+00   0.000000000E+00               NaN   0.100000000E+02
   0.562500000E+00   0.000000000E+00   0.000000000E+00   0.000000000E+00   0.000000000E+00               NaN   0.100000000E+02
   0.578125000E+00   0.000000000E+00   0.000000000E+00   0.000000000E+00   0.000000000E+00               NaN   0.100000000E+02
   0.593750000E+00   0.000000000E+00   0.000000000E+00   0.000000000E+00   0.000000000E+00               NaN   0.100000000E+02
   0.609375000E+00   0.000000000E+00   0.000000000E+00   0.000000000E+00   0.000000000E+00               NaN   0.100000000E+02
   0.625000000E+00   0.000000000E+00   0.000000000E+00   0.000000000E+00   0.000000000E+00               NaN   0.100000000E+02
   0.640625000E+00   0.000000000E+00   0.000000000E+00   0.000000000E+00   0.000000000E+00               NaN   0.100000000E+02
   0.656250000E+00   0.000000000E+00   0.000000000E+00   0.000000000E+00   0.000000000E+00               NaN   0.100000000E+02
   0.671875000E+00   0.000000000E+00   0.000000000E+00   0.000000000E+00   0.000000000E+00               NaN   0.100000000E+02
   0.687500000E+00   0.000000000E+00   0.000000000E+00   0.000000000E+00   0.000000000E+00               NaN   0.100000000E+02
   0.703125000E+00   0.000000000E+00   0.000000000E+00   0.000000000E+00   0.000000000E+00               NaN   0.100000000E+02
   0.718750000E+00   0.000000000E+00   0.000000000E+00   0.000000000E+00   0.000000000E+00               NaN   0.100000000E+02
   0.734375000E+00   0.000000000E+00   0.000000000E+00   0.000000000E+00   0.000000000E+00               NaN   0.100000000E+02
   0.750000000E+00   0.000000000E+00   0.000000000E+00   0.000000000E+00   0.000000000E+00               NaN   0.100000000E+02
   0.765625000E+00   0.000000000E+00   0.000000000E+00   0.000000000E+00   0.000000000E+00               NaN   0.100000000E+02
   0.781250000E+00   0.000000000E+00   0.000000000E+00   0.000000000E+00   0.000000000E+00               NaN   0.100000000E+02
   0.796875000E+00   0.000000000E+00   0.000000000E+00   0.000000000E+00   0.000000000E+00               NaN   0.100000000E+02
   0.812500000E+00   0.000000000E+00   0.000000000E+00   0.000000000E+00   0.000000000E+00               NaN   0.100000000E+02
   0.828125000E+00   0.000000000E+00   0.000000000E+00   0.000000000E+00   0.000000000E+00               NaN   0.100000000E+02
   0.843750000E+00   0.000000000E+00   0.000000000E+00   0.000000000E+00   0.000000000E+00               NaN   0.100000000E+02
   0.859375000E+00   0.000000000E+00   0.000000000E+00   0.000000000E+00   0.000000000E+00               NaN   0.100000000E+02
   0.875000000E+00   0.000000000E+00   0.000000000E+00   0.000000000E+00   0.000000000E+00               NaN   0.100000000E+02
   0.890625000E+00   0.000000000E+00   0.000000000E+00   0.000000000E+00   0.000000000E+00               NaN   0.100000000E+02
   0.906250000E+00   0.000000000E+00   0.000000000E+00   0.000000000E+00   0.000000000E+00               NaN   0.100000000E+02
   0.921875000E+00   0.000000000E+00   0.000000000E+00   0.000000000E+00   0.000000000E+00               NaN   0.100000000E+02
   0.937500000E+00   0.000000000E+00   0.000000000E+00   0.000000000E+00   0.000000000E+00               NaN   0.100000000E+02
   0.953125000E+00   0.000000000E+00   0.000000000E+00   0.000000000E+00   0.000000000E+00               NaN   0.100000000E+02
   0.968750000E+00   0.000000000E+00   0.000000000E+00   0.000000000E+00   0.000000000E+00               NaN   0.100000000E+02
   0.984375000E+00   0.000000000E+00   0.000000000E+00   0.000000000E+00   0.000000000E+00               NaN   0.100000000E+02
   0.100000000E+01   0.000000000E+00   0.000000000E+00   0.000000000E+00   0.000000000E+00   0.819200000E+05   0.100000000E+02
   0.000000000E+00   0.156250000E-01   0.000000000E+00   0.000000000E+00   0.000000000E+00   0.000000000E+00   0.000000000E+00
   0.156250000E-01   0.156250000E-01               NaN               NaN               NaN               NaN   0.000000000E+00
   0.312500000E-01   0.156250000E-01               NaN               NaN               NaN               NaN   0.000000000E+00
   0.468750000E-01   0.156250000E-01               NaN               NaN               NaN               NaN   0.000000000E+00
   0.625000000E-01   0.156250000E-01               NaN               NaN               NaN               NaN   0.000000000E+00
   0.781250000E-01   0.156250000E-01               NaN               NaN               NaN               NaN   0.000000000E+00
   0.937500000E-01   0.156250000E-01               NaN               NaN               NaN               NaN   0.000000000E+00
   0.109375000E+00   0.156250000E-01               NaN               NaN               NaN               NaN   0.000000000E+00
   0.125000000E+00   0.156250000E-01               NaN               NaN               NaN               NaN   0.000000000E+00
   0.140625000E+00   0.156250000E-01               NaN               NaN               NaN               NaN   0.000000000E+00
   0.156250000E+00   0.156250000E-01               NaN               NaN               NaN               NaN   0.000000000E+00
   0.171875000E+00   0.156250000E-01               NaN               NaN               NaN               NaN   0.000000000E+00
   0.187500000E+00   0.156250000E-01               NaN               NaN               NaN               NaN               NaN
   0.203125000E+00   0.156250000E-01               NaN               NaN               NaN               NaN               NaN
   0.218750000E+00   0.156250000E-01               NaN               NaN               NaN               NaN               NaN
   0.234375000E+00   0.156250000E-01               NaN               NaN               NaN               NaN               NaN
   0.250000000E+00   0.156250000E-01               NaN               NaN               NaN               NaN               NaN
   0.265625000E+00   0.156250000E-01               NaN               NaN               NaN               NaN               NaN
   0.281250000E+00   0.156250000E-01               NaN               NaN               NaN               NaN               NaN
   0.296875000E+00   0.156250000E-01               NaN               NaN               NaN               NaN               NaN
   0.312500000E+00   0.156250000E-01               NaN               NaN               NaN               NaN               NaN
   0.328125000E+00   0.156250000E-01               NaN               NaN               NaN               NaN               NaN
   0.343750000E+00   0.156250000E-01               NaN               NaN               NaN               NaN               NaN
   0.359375000E+00   0.156250000E-01               NaN               NaN               NaN               NaN               NaN
   0.375000000E+00   0.156250000E-01               NaN               NaN               NaN               NaN               NaN
   0.390625000E+00   0.156250000E-01               NaN               NaN               NaN               NaN               NaN
   0.406250000E+00   0.156250000E-01               NaN               NaN               NaN               NaN               NaN
   0.421875000E+00   0.156250000E-01               NaN               NaN               NaN               NaN               NaN
   0.437500000E+00   0.156250000E-01               NaN               NaN               NaN               NaN               NaN
   0.453125000E+00   0.156250000E-01               NaN               NaN               NaN               NaN               NaN
   0.468750000E+00   0.156250000E-01               NaN               NaN               NaN               NaN               NaN
   0.484375000E+00   0.156250000E-01               NaN               NaN               NaN               NaN               NaN
   0.500000000E+00   0.156250000E-01               NaN               NaN               NaN               NaN               NaN
   0.515625000E+00   0.156250000E-01               NaN               NaN               NaN               NaN               NaN
   0.531250000E+00   0.156250000E-01               NaN               NaN               NaN               NaN               NaN
   0.546875000E+00   0.156250000E-01               NaN               NaN               NaN               NaN               NaN
   0.562500000E+00   0.156250000E-01               NaN               NaN               NaN               NaN               NaN
   0.578125000E+00   0.156250000E-01               NaN               NaN               NaN               NaN               NaN
   0.593750000E+00   0.156250000E-01               NaN               NaN               NaN               NaN               NaN
   0.609375000E+00   0.156250000E-01               NaN               NaN               NaN               NaN               NaN
   0.625000000E+00   0.156250000E-01               NaN               NaN               NaN               NaN               NaN
   0.640625000E+00   0.156250000E-01               NaN               NaN               NaN               NaN               NaN
   0.656250000E+00   0.156250000E-01               NaN               NaN               NaN               NaN               NaN
   0.671875000E+00   0.156250000E-01               NaN               NaN               NaN               NaN               NaN
   0.687500000E+00   0.156250000E-01               NaN               NaN               NaN               NaN               NaN
   0.703125000E+00   0.156250000E-01               NaN               NaN               NaN               NaN               NaN
   0.718750000E+00   0.156250000E-01               NaN               NaN               NaN               NaN               NaN
   0.734375000E+00   0.156250000E-01               NaN               NaN               NaN               NaN               NaN
   0.750000000E+00   0.156250000E-01               NaN               NaN               NaN               NaN               NaN
   0.765625000E+00   0.156250000E-01               NaN               NaN               NaN               NaN               NaN
   0.781250000E+00   0.156250000E-01               NaN               NaN               NaN               NaN               NaN
   0.796875000E+00   0.156250000E-01               NaN               NaN               NaN               NaN               NaN
   0.812500000E+00   0.156250000E-01               NaN               NaN               NaN               NaN               NaN
   0.828125000E+00   0.156250000E-01               NaN               NaN               NaN               NaN               NaN
   0.843750000E+00   0.156250000E-01               NaN               NaN               NaN               NaN               NaN
   0.859375000E+00   0.156250000E-01               NaN               NaN               NaN               NaN               NaN
   0.875000000E+00   0.156250000E-01               NaN               NaN               NaN               NaN               NaN
   0.890625000E+00   0.156250000E-01               NaN               NaN               NaN               NaN               NaN
   0.906250000E+00   0.156250000E-01               NaN               NaN               NaN               NaN               NaN
   0.921875000E+00   0.156250000E-01               NaN               NaN               NaN               NaN               NaN
   0.937500000E+00   0.156250000E-01               NaN               NaN               NaN               NaN               NaN
   0.953125000E+00   0.156250000E-01               NaN               NaN               NaN               NaN               NaN
   0.968750000E+00   0.156250000E-01               NaN               NaN               NaN               NaN               NaN
   0.984375000E+00   0.156250000E-01               NaN               NaN               NaN               NaN               NaN
   0.100000000E+01   0.156250000E-01   0.000000000E+00   0.000000000E+00   0.000000000E+00               NaN   0.000000000E+00
   0.000000000E+00   0.312500000E-01   0.000000000E+00   0.000000000E+00   0.000000000E+00   0.000000000E+00   0.000000000E+00
   0.156250000E-01   0.312500000E-01               NaN               NaN               NaN               NaN   0.000000000E+00
   0.312500000E-01   0.312500000E-01               NaN               NaN               NaN               NaN   0.000000000E+00
   0.468750000E-01   0.312500000E-01               NaN               NaN               NaN               NaN   0.000000000E+00
   0.625000000E-01   0.312500000E-01               NaN               NaN               NaN               NaN   0.000000000E+00
   0.781250000E-01   0.312500000E-01               NaN               NaN               NaN               NaN   0.000000000E+00
   0.937500000E-01   0.312500000E-01               NaN               NaN               NaN               NaN   0.000000000E+00
   0.109375000E+00   0.312500000E-01               NaN               NaN               NaN               NaN   0.000000000E+00
   0.125000000E+00   0.312500000E-01               NaN               NaN               NaN               NaN   0.000000000E+00
   0.140625000E+00   0.312500000E-01               NaN               NaN               NaN               NaN   0.000000000E+00
   0.156250000E+00   0.312500000E-01               NaN               NaN               NaN               NaN   0.000000000E+00
   0.171875000E+00   0.312500000E-01               NaN               NaN               NaN               NaN   0.000000000E+00
   0.187500000E+00   0.312500000E-01               NaN               NaN               NaN               NaN               NaN
   0.203125000E+00   0.312500000E-01               NaN               NaN               NaN               NaN               NaN
   0.218750000E+00   0.312500000E-01               NaN               NaN               NaN               NaN               NaN
   0.234375000E+00   0.312500000E-01               NaN               NaN               NaN               NaN               NaN
   0.250000000E+00   0.312500000E-01               NaN               NaN               NaN               NaN               NaN
   0.265625000E+00   0.312500000E-01               NaN               NaN               NaN               NaN               NaN
   0.281250000E+00   0.312500000E-01               NaN               NaN               NaN               NaN               NaN
   0.296875000E+00   0.312500000E-01               NaN               NaN               NaN               NaN               NaN
   0.312500000E+00   0.312500000E-01               NaN               NaN               NaN               NaN               NaN
   0.328125000E+00   0.312500000E-01               NaN               NaN               NaN               NaN               NaN
   0.343750000E+00   0.312500000E-01               NaN               NaN               NaN               NaN               NaN
   0.359375000E+00   0.312500000E-01               NaN               NaN               NaN               NaN               NaN
   0.375000000E+00   0.312500000E-01               NaN               NaN               NaN               NaN               NaN
   0.390625000E+00   0.312500000E-01               NaN               NaN               NaN               NaN               NaN
   0.406250000E+00   0.312500000E-01               NaN               NaN               NaN               NaN               NaN
   0.421875000E+00   0.312500000E-01               NaN               NaN               NaN               NaN               NaN
   0.437500000E+00   0.312500000E-01               NaN               NaN               NaN               NaN               NaN
   0.453125000E+00   0.312500000E-01               NaN               NaN               NaN               NaN               NaN
   0.468750000E+00   0.312500000E-01               NaN               NaN               NaN               NaN               NaN
   0.484375000E+00   0.312500000E-01               NaN               NaN               NaN               NaN               NaN
   0.500000000E+00   0.312500000E-01               NaN               NaN               NaN               NaN               NaN
   0.515625000E+00   0.312500000E-01               NaN               NaN               NaN               NaN               NaN
   0.531250000E+00   0.312500000E-01               NaN               NaN               NaN               NaN               NaN
   0.546875000E+00   0.312500000E-01               NaN               NaN               NaN               NaN               NaN
   0.562500000E+00   0.312500000E-01               NaN               NaN               NaN               NaN               NaN
   0.578125000E+00   0.312500000E-01               NaN               NaN               NaN               NaN               NaN
   0.593750000E+00   0.312500000E-01               NaN               NaN               NaN               NaN               NaN
   0.609375000E+00   0.312500000E-01               NaN               NaN               NaN               NaN               NaN
   0.625000000E+00   0.312500000E-01               NaN               NaN               NaN               NaN               NaN
   0.640625000E+00   0.312500000E-01               NaN               NaN               NaN               NaN               NaN
   0.656250000E+00   0.312500000E-01               NaN               NaN               NaN               NaN               NaN
   0.671875000E+00   0.312500000E-01               NaN               NaN               NaN               NaN               NaN
   0.687500000E+00   0.312500000E-01               NaN               NaN               NaN               NaN               NaN
   0.703125000E+00   0.312500000E-01               NaN               NaN               NaN               NaN               NaN
   0.718750000E+00   0.312500000E-01               NaN               NaN               NaN               NaN               NaN
   0.734375000E+00   0.312500000E-01               NaN               NaN               NaN               NaN               NaN
   0.750000000E+00   0.312500000E-01               NaN               NaN               NaN               NaN               NaN
   0.765625000E+00   0.312500000E-01               NaN               NaN               NaN               NaN               NaN
   0.781250000E+00   0.312500000E-01               NaN               NaN               NaN               NaN               NaN
   0.796875000E+00   0.312500000E-01               NaN               NaN               NaN               NaN               NaN
   0.812500000E+00   0.312500000E-01               NaN               NaN               NaN               NaN               NaN
   0.828125000E+00   0.312500000E-01               NaN               NaN               NaN               NaN               NaN
   0.843750000E+00   0.312500000E-01               NaN               NaN               NaN               NaN               NaN
   0.859375000E+00   0.312500000E-01               NaN               NaN               NaN               NaN               NaN
   0.875000000E+00   0.312500000E-01               NaN               NaN               NaN               NaN               NaN
   0.890625000E+00   0.312500000E-01               NaN               NaN               NaN               NaN               NaN
   0.906250000E+00   0.312500000E-01               NaN               NaN               NaN               NaN               NaN
   0.921875000E+00   0.312500000E-01               NaN               NaN               NaN               NaN               NaN
   0.937500000E+00   0.312500000E-01               NaN               NaN               NaN               NaN               NaN
   0.953125000E+00   0.312500000E-01               NaN               NaN               NaN               NaN               NaN
   0.968750000E+00   0.312500000E-01               NaN               NaN               NaN               NaN               NaN
   0.984375000E+00   0.312500000E-01               NaN               NaN               NaN               NaN               NaN
   0.100000000E+01   0.312500000E-01   0.000000000E+00   0.000000000E+00   0.000000000E+00               NaN   0.000000000E+00
   0.000000000E+00   0.468750000E-01   0.000000000E+00   0.000000000E+00   0.000000000E+00   0.000000000E+00   0.000000000E+00
   0.156250000E-01   0.468750000E-01               NaN               NaN               NaN               NaN   0.000000000E+00
   0.312500000E-01   0.468750000E-01               NaN               NaN               NaN               NaN   0.000000000E+00
   0.468750000E-01   0.468750000E-01               NaN               NaN               NaN               NaN   0.000000000E+00
   0.625000000E-01   0.468750000E-01               NaN               NaN               NaN               NaN   0.000000000E+00
   0.781250000E-01   0.468750000E-01               NaN               NaN               NaN               NaN   0.000000000E+00
   0.937500000E-01   0.468750000E-01               NaN               NaN               NaN               NaN   0.000000000E+00
   0.109375000E+00   0.468750000E-01               NaN               NaN               NaN               NaN   0.000000000E+00
   0.125000000E+00   0.468750000E-01               NaN               NaN               NaN               NaN   0.000000000E+00
   0.140625000E+00   0.468750000E-01               NaN               NaN               NaN               NaN   0.000000000E+00
   0.156250000E+00   0.468750000E-01               NaN               NaN               NaN               NaN   0.000000000E+00
   0.171875000E+00   0.468750000E-01               NaN               NaN               NaN               NaN   0.000000000E+00
   0.187500000E+00   0.468750000E-01               NaN               NaN               NaN               NaN               NaN
   0.203125000E+00   0.468750000E-01               NaN               NaN               NaN               NaN               NaN
   0.218750000E+00   0.468750000E-01               NaN               NaN               NaN               NaN               NaN
   0.234375000E+00   0.468750000E-01               NaN               NaN               NaN               NaN               NaN
   0.250000000E+00   0.468750000E-01               NaN               NaN               NaN               NaN               NaN
   0.265625000E+00   0.468750000E-01               NaN               NaN               NaN               NaN               NaN
   0.281250000E+00   0.468750000E-01               NaN               NaN               NaN               NaN               NaN
   0.296875000E+00   0.468750000E-01               NaN               NaN               NaN               NaN               NaN
   0.312500000E+00   0.468750000E-01               NaN               NaN               NaN               NaN               NaN
   0.328125000E+00   0.468750000E-01               NaN               NaN               NaN               NaN               NaN
   0.343750000E+00   0.468750000E-01               NaN               NaN               NaN               NaN               NaN
   0.359375000E+00   0.468750000E-01               NaN               NaN               NaN               NaN               NaN
   0.375000000E+00   0.468750000E-01               NaN               NaN               NaN               NaN               NaN
   0.390625000E+00   0.468750000E-01               NaN               NaN               NaN               NaN               NaN
   0.406250000E+00   0.468750000E-01               NaN               NaN               NaN               NaN               NaN
   0.421875000E+00   0.468750000E-01               NaN               NaN               NaN               NaN               NaN
   0.437500000E+00   0.468750000E-01               NaN               NaN               NaN               NaN               NaN
   0.453125000E+00   0.468750000E-01               NaN               NaN               NaN               NaN               NaN
   0.468750000E+00   0.468750000E-01               NaN               NaN               NaN               NaN               NaN
   0.484375000E+00   0.468750000E-01               NaN               NaN               NaN               NaN               NaN
   0.500000000E+00   0.468750000E-01               NaN               NaN               NaN               NaN               NaN
   0.515625000E+00   0.468750000E-01               NaN               NaN               NaN               NaN               NaN
   0.531250000E+00   0.468750000E-01               NaN               NaN               NaN               NaN               NaN
   0.546875000E+00   0.468750000E-01               NaN               NaN               NaN               NaN               NaN
   0.562500000E+00   0.468750000E-01               NaN               NaN               NaN               NaN               NaN
   0.578125000E+00   0.468750000E-01               NaN               NaN               NaN               NaN               NaN
   0.593750000E+00   0.468750000E-01               NaN               NaN               NaN               NaN               NaN